 Gaussian 03, Revision D.01,
 Gaussian 03:  AM64L-G03RevD.01 13-Oct-2005

 -----------------------------------------------
 #P b3lyp/STO-3G TD(NStates=6) SCFcyc=500 NoSymm
 -----------------------------------------------

 -------------------------
 Gaussian template charges
 -------------------------
 Symbolic Z-matrix:
 Charge =  0 Multiplicity = 1

                          Input orientation:
 ---------------------------------------------------------------------
 Center     Atomic     Atomic              Coordinates (Angstroms)
 Number     Number      Type              X           Y           Z
 ---------------------------------------------------------------------
    1          6             0        2.428280    0.001838    0.006083
    2          6             0        0.915603    0.004430   -0.007524
    3          6             0        0.197635   -1.202030   -0.005671
    4          6             0       -1.198860   -1.208798    0.001330
    5          6             0       -1.907868   -0.003065    0.005385
    6          6             0       -1.206495    1.204683    0.001466
    7          6             0        0.192215    1.204974   -0.005849
    8          1             0        2.834884   -0.701703   -0.730361
    9          1             0        2.831835    0.994935   -0.218450
   10          1             0        0.739711   -2.146071   -0.011235
   11          1             0       -1.734149   -2.155365    0.001091
   12          1             0       -2.994936   -0.006384    0.008900
   13          1             0       -1.746013    2.148821    0.001421
   14          1             0        0.729092    2.151598   -0.011420
   15          1             0        2.816521   -0.298020    0.988731
 ---------------------------------------------------------------------

 SCF Done:  E(RB+HF-LYP) =  -268.258885756     A.U. after   13 cycles

 Excitation energies and oscillator strengths:

 Excited state symmetry could not be determined.
 Excited State   1:   Singlet-?Sym    6.3105 eV  196.47 nm  f=0.0003
      24 -> 26        -0.47947
      24 -> 27         0.14581
      25 -> 26         0.15580
      25 -> 27         0.49443
 This state for optimization and/or second-order correction.
 Total Energy, E(RPA) =  -268.026980861
 Copying the excited state density for this state as the 1-particle RhoCI density.

 Excited state symmetry could not be determined.
 Excited State   2:   Singlet-?Sym    7.5680 eV  163.83 nm  f=0.0333
      24 -> 26         0.12094
      24 -> 27         0.36964
      25 -> 26         0.49318
      25 -> 27        -0.14789

 Excited state symmetry could not be determined.
 Excited State   3:   Singlet-?Sym    8.6699 eV  143.01 nm  f=0.7330
      24 -> 27         0.47453
      25 -> 26        -0.34339

 Excited state symmetry could not be determined.
 Excited State   4:   Singlet-?Sym    8.6961 eV  142.57 nm  f=0.5943
      24 -> 26         0.42672
      25 -> 27         0.40009

 Excited state symmetry could not be determined.
 Excited State   5:   Singlet-?Sym    8.9189 eV  139.01 nm  f=0.0002
      22 -> 26        -0.19082
      22 -> 27        -0.21879
      23 -> 26         0.61411
      23 -> 27        -0.18125

 Excited state symmetry could not be determined.
 Excited State   6:   Singlet-?Sym    9.0459 eV  137.06 nm  f=0.0004
      22 -> 26        -0.33181
      22 -> 27         0.11420
      23 -> 26         0.11303
      23 -> 27         0.59590

 Alpha  occ. eigenvalues --  -10.01501 -10.01350 -10.00201 -10.00184 -10.00062
 Alpha  occ. eigenvalues --   -9.99897  -9.99878  -0.80716  -0.72685  -0.69726
 Alpha  occ. eigenvalues --   -0.64445  -0.56034  -0.54049  -0.46976  -0.41515
 Alpha  occ. eigenvalues --   -0.41115  -0.38429  -0.37425  -0.36313  -0.34568
 Alpha  occ. eigenvalues --   -0.30301  -0.29280  -0.29073  -0.19151  -0.18419
 Alpha virt. eigenvalues --    0.09316   0.09524   0.25480   0.34727   0.38375
 Alpha virt. eigenvalues --    0.39993   0.43714   0.45727   0.46108   0.47155
 Alpha virt. eigenvalues --    0.48618   0.48956   0.59097   0.59853   0.61128

 Mulliken atomic charges:
              1
     1  C   -0.228810
     2  C    0.004920
     3  C   -0.084283
     4  C   -0.081971
     5  C   -0.083819
     6  C   -0.082106
     7  C   -0.083787
     8  H    0.083210
     9  H    0.080958
    10  H    0.076409
    11  H    0.079401
    12  H    0.079428
    13  H    0.079477
    14  H    0.076303
    15  H    0.084671
 Sum of Mulliken charges=   0.00000

 Dipole moment (field-independent basis, Debye):
    X=     0.3387    Y=    -0.0229    Z=     0.0208  Tot=     0.3401
 Quadrupole moment (field-independent basis, Debye-Ang):
   XX=   -36.1442   YY=   -36.6718   ZZ=   -41.0936
   XY=    -0.0670   XZ=     0.0458   YZ=     0.0013

 Normal termination of Gaussian 03 at Fri May 29 11:40:55 2020.
